Solvent,Temperature_K,Density_g/cm^3,Source
Water,313.05,0.99225,"NIST Chemistry WebBook, SRD 69"
Water,313.15,0.99222,"NIST Chemistry WebBook, SRD 69"
Water,313.25,0.99218,"NIST Chemistry WebBook, SRD 69"
Water,313.35,0.99214,"NIST Chemistry WebBook, SRD 69"
Water,313.45,0.9921,"NIST Chemistry WebBook, SRD 69"
Water,313.55,0.99206,"NIST Chemistry WebBook, SRD 69"
Water,313.65,0.99202,"NIST Chemistry WebBook, SRD 69"
Water,313.75,0.99199,"NIST Chemistry WebBook, SRD 69"
Water,313.85,0.99195,"NIST Chemistry WebBook, SRD 69"
Water,313.95,0.99191,"NIST Chemistry WebBook, SRD 69"
Water,314.05,0.99187,"NIST Chemistry WebBook, SRD 69"
Water,314.15,0.99183,"NIST Chemistry WebBook, SRD 69"
Water,314.25,0.99179,"NIST Chemistry WebBook, SRD 69"
Water,314.35,0.99175,"NIST Chemistry WebBook, SRD 69"
Water,314.45,0.99171,"NIST Chemistry WebBook, SRD 69"
Water,314.55,0.99167,"NIST Chemistry WebBook, SRD 69"
Water,314.65,0.99163,"NIST Chemistry WebBook, SRD 69"
Water,314.75,0.99159,"NIST Chemistry WebBook, SRD 69"
Water,314.85,0.99156,"NIST Chemistry WebBook, SRD 69"
Water,314.95,0.99152,"NIST Chemistry WebBook, SRD 69"
Water,315.05,0.99148,"NIST Chemistry WebBook, SRD 69"
Water,315.15,0.99144,"NIST Chemistry WebBook, SRD 69"
Water,315.25,0.9914,"NIST Chemistry WebBook, SRD 69"
Water,315.35,0.99136,"NIST Chemistry WebBook, SRD 69"
Water,315.45,0.99132,"NIST Chemistry WebBook, SRD 69"
Water,315.55,0.99128,"NIST Chemistry WebBook, SRD 69"
Water,315.65,0.99124,"NIST Chemistry WebBook, SRD 69"
Water,315.75,0.9912,"NIST Chemistry WebBook, SRD 69"
Water,315.85,0.99116,"NIST Chemistry WebBook, SRD 69"
Water,315.95,0.99112,"NIST Chemistry WebBook, SRD 69"
Water,316.05,0.99108,"NIST Chemistry WebBook, SRD 69"
Water,316.15,0.99104,"NIST Chemistry WebBook, SRD 69"
Water,316.25,0.991,"NIST Chemistry WebBook, SRD 69"
Water,316.35,0.99095,"NIST Chemistry WebBook, SRD 69"
Water,316.45,0.99091,"NIST Chemistry WebBook, SRD 69"
Water,316.55,0.99087,"NIST Chemistry WebBook, SRD 69"
Water,316.65,0.99083,"NIST Chemistry WebBook, SRD 69"
Water,316.75,0.99079,"NIST Chemistry WebBook, SRD 69"
Water,316.85,0.99075,"NIST Chemistry WebBook, SRD 69"
Water,316.95,0.99071,"NIST Chemistry WebBook, SRD 69"
Water,317.05,0.99067,"NIST Chemistry WebBook, SRD 69"
Water,317.15,0.99063,"NIST Chemistry WebBook, SRD 69"
Water,317.25,0.99059,"NIST Chemistry WebBook, SRD 69"
Water,317.35,0.99055,"NIST Chemistry WebBook, SRD 69"
Water,317.45,0.9905,"NIST Chemistry WebBook, SRD 69"
Water,317.55,0.99046,"NIST Chemistry WebBook, SRD 69"
Water,317.65,0.99042,"NIST Chemistry WebBook, SRD 69"
Water,317.75,0.99038,"NIST Chemistry WebBook, SRD 69"
Water,317.85,0.99034,"NIST Chemistry WebBook, SRD 69"
Water,317.95,0.9903,"NIST Chemistry WebBook, SRD 69"
Water,318.05,0.99025,"NIST Chemistry WebBook, SRD 69"
Water,318.15,0.99021,"NIST Chemistry WebBook, SRD 69"
Water,318.25,0.99017,"NIST Chemistry WebBook, SRD 69"
Water,318.35,0.99013,"NIST Chemistry WebBook, SRD 69"
Water,318.45,0.99009,"NIST Chemistry WebBook, SRD 69"
Water,318.55,0.99004,"NIST Chemistry WebBook, SRD 69"
Water,318.65,0.99,"NIST Chemistry WebBook, SRD 69"
Water,318.75,0.98996,"NIST Chemistry WebBook, SRD 69"
Water,318.85,0.98992,"NIST Chemistry WebBook, SRD 69"
Water,318.95,0.98988,"NIST Chemistry WebBook, SRD 69"
Water,319.05,0.98983,"NIST Chemistry WebBook, SRD 69"
Water,319.15,0.98979,"NIST Chemistry WebBook, SRD 69"
Water,319.25,0.98975,"NIST Chemistry WebBook, SRD 69"
Water,319.35,0.98971,"NIST Chemistry WebBook, SRD 69"
Water,319.45,0.98966,"NIST Chemistry WebBook, SRD 69"
Water,319.55,0.98962,"NIST Chemistry WebBook, SRD 69"
Water,319.65,0.98958,"NIST Chemistry WebBook, SRD 69"
Water,319.75,0.98953,"NIST Chemistry WebBook, SRD 69"
Water,319.85,0.98949,"NIST Chemistry WebBook, SRD 69"
Water,319.95,0.98945,"NIST Chemistry WebBook, SRD 69"
Water,320.05,0.98941,"NIST Chemistry WebBook, SRD 69"
Water,320.15,0.98936,"NIST Chemistry WebBook, SRD 69"
Water,320.25,0.98932,"NIST Chemistry WebBook, SRD 69"
Water,320.35,0.98928,"NIST Chemistry WebBook, SRD 69"
Water,320.45,0.98923,"NIST Chemistry WebBook, SRD 69"
Water,320.55,0.98919,"NIST Chemistry WebBook, SRD 69"
Water,320.65,0.98915,"NIST Chemistry WebBook, SRD 69"
Water,320.75,0.9891,"NIST Chemistry WebBook, SRD 69"
Water,320.85,0.98906,"NIST Chemistry WebBook, SRD 69"
Water,320.95,0.98901,"NIST Chemistry WebBook, SRD 69"
Water,321.05,0.98897,"NIST Chemistry WebBook, SRD 69"
Water,321.15,0.98893,"NIST Chemistry WebBook, SRD 69"
Water,321.25,0.98888,"NIST Chemistry WebBook, SRD 69"
Water,321.35,0.98884,"NIST Chemistry WebBook, SRD 69"
Water,321.45,0.98879,"NIST Chemistry WebBook, SRD 69"
Water,321.55,0.98875,"NIST Chemistry WebBook, SRD 69"
Water,321.65,0.98871,"NIST Chemistry WebBook, SRD 69"
Water,321.75,0.98866,"NIST Chemistry WebBook, SRD 69"
Water,321.85,0.98862,"NIST Chemistry WebBook, SRD 69"
Water,321.95,0.98857,"NIST Chemistry WebBook, SRD 69"
Water,322.05,0.98853,"NIST Chemistry WebBook, SRD 69"
Water,322.15,0.98848,"NIST Chemistry WebBook, SRD 69"
Water,322.25,0.98844,"NIST Chemistry WebBook, SRD 69"
Water,322.35,0.98839,"NIST Chemistry WebBook, SRD 69"
Water,322.45,0.98835,"NIST Chemistry WebBook, SRD 69"
Water,322.55,0.98831,"NIST Chemistry WebBook, SRD 69"
Water,322.65,0.98826,"NIST Chemistry WebBook, SRD 69"
Water,322.75,0.98822,"NIST Chemistry WebBook, SRD 69"
Water,322.85,0.98817,"NIST Chemistry WebBook, SRD 69"
Water,322.95,0.98813,"NIST Chemistry WebBook, SRD 69"
Water,323.05,0.98808,"NIST Chemistry WebBook, SRD 69"
Water,323.15,0.98804,"NIST Chemistry WebBook, SRD 69"
Water,323.25,0.98799,"NIST Chemistry WebBook, SRD 69"
Water,323.35,0.98794,"NIST Chemistry WebBook, SRD 69"
Water,323.45,0.9879,"NIST Chemistry WebBook, SRD 69"
Water,323.55,0.98785,"NIST Chemistry WebBook, SRD 69"
Water,323.65,0.98781,"NIST Chemistry WebBook, SRD 69"
Water,323.75,0.98776,"NIST Chemistry WebBook, SRD 69"
Water,323.85,0.98772,"NIST Chemistry WebBook, SRD 69"
Water,323.95,0.98767,"NIST Chemistry WebBook, SRD 69"
Water,324.05,0.98763,"NIST Chemistry WebBook, SRD 69"
Water,324.15,0.98758,"NIST Chemistry WebBook, SRD 69"
Water,324.25,0.98753,"NIST Chemistry WebBook, SRD 69"
Water,324.35,0.98749,"NIST Chemistry WebBook, SRD 69"
Water,324.45,0.98744,"NIST Chemistry WebBook, SRD 69"
Water,324.55,0.9874,"NIST Chemistry WebBook, SRD 69"
Water,324.65,0.98735,"NIST Chemistry WebBook, SRD 69"
Water,324.75,0.9873,"NIST Chemistry WebBook, SRD 69"
Water,324.85,0.98726,"NIST Chemistry WebBook, SRD 69"
Water,324.95,0.98721,"NIST Chemistry WebBook, SRD 69"
Water,325.05,0.98716,"NIST Chemistry WebBook, SRD 69"
Water,325.15,0.98712,"NIST Chemistry WebBook, SRD 69"
Water,325.25,0.98707,"NIST Chemistry WebBook, SRD 69"
Water,325.35,0.98702,"NIST Chemistry WebBook, SRD 69"
Water,325.45,0.98698,"NIST Chemistry WebBook, SRD 69"
Water,325.55,0.98693,"NIST Chemistry WebBook, SRD 69"
Water,325.65,0.98688,"NIST Chemistry WebBook, SRD 69"
Water,325.75,0.98684,"NIST Chemistry WebBook, SRD 69"
Water,325.85,0.98679,"NIST Chemistry WebBook, SRD 69"
Water,325.95,0.98674,"NIST Chemistry WebBook, SRD 69"
Water,326.05,0.9867,"NIST Chemistry WebBook, SRD 69"
Water,326.15,0.98665,"NIST Chemistry WebBook, SRD 69"
Water,326.25,0.9866,"NIST Chemistry WebBook, SRD 69"
Water,326.35,0.98655,"NIST Chemistry WebBook, SRD 69"
Water,326.45,0.98651,"NIST Chemistry WebBook, SRD 69"
Water,326.55,0.98646,"NIST Chemistry WebBook, SRD 69"
Water,326.65,0.98641,"NIST Chemistry WebBook, SRD 69"
Water,326.75,0.98636,"NIST Chemistry WebBook, SRD 69"
Water,326.85,0.98632,"NIST Chemistry WebBook, SRD 69"
Water,326.95,0.98627,"NIST Chemistry WebBook, SRD 69"
Water,327.05,0.98622,"NIST Chemistry WebBook, SRD 69"
Water,327.15,0.98617,"NIST Chemistry WebBook, SRD 69"
Water,327.25,0.98613,"NIST Chemistry WebBook, SRD 69"
Water,327.35,0.98608,"NIST Chemistry WebBook, SRD 69"
Water,327.45,0.98603,"NIST Chemistry WebBook, SRD 69"
Water,327.55,0.98598,"NIST Chemistry WebBook, SRD 69"
Water,327.65,0.98593,"NIST Chemistry WebBook, SRD 69"
Water,327.75,0.98589,"NIST Chemistry WebBook, SRD 69"
Water,327.85,0.98584,"NIST Chemistry WebBook, SRD 69"
Water,327.95,0.98579,"NIST Chemistry WebBook, SRD 69"
Water,328.05,0.98574,"NIST Chemistry WebBook, SRD 69"
Water,328.15,0.98569,"NIST Chemistry WebBook, SRD 69"
Water,328.25,0.98564,"NIST Chemistry WebBook, SRD 69"
Water,328.35,0.9856,"NIST Chemistry WebBook, SRD 69"
Water,328.45,0.98555,"NIST Chemistry WebBook, SRD 69"
Water,328.55,0.9855,"NIST Chemistry WebBook, SRD 69"
Water,328.65,0.98545,"NIST Chemistry WebBook, SRD 69"
Water,328.75,0.9854,"NIST Chemistry WebBook, SRD 69"
Water,328.85,0.98535,"NIST Chemistry WebBook, SRD 69"
Water,328.95,0.9853,"NIST Chemistry WebBook, SRD 69"
Water,329.05,0.98525,"NIST Chemistry WebBook, SRD 69"
Water,329.15,0.98521,"NIST Chemistry WebBook, SRD 69"
Water,329.25,0.98516,"NIST Chemistry WebBook, SRD 69"
Water,329.35,0.98511,"NIST Chemistry WebBook, SRD 69"
Water,329.45,0.98506,"NIST Chemistry WebBook, SRD 69"
Water,329.55,0.98501,"NIST Chemistry WebBook, SRD 69"
Water,329.65,0.98496,"NIST Chemistry WebBook, SRD 69"
Water,329.75,0.98491,"NIST Chemistry WebBook, SRD 69"
Water,329.85,0.98486,"NIST Chemistry WebBook, SRD 69"
Water,329.95,0.98481,"NIST Chemistry WebBook, SRD 69"
Water,330.05,0.98476,"NIST Chemistry WebBook, SRD 69"
Water,330.15,0.98471,"NIST Chemistry WebBook, SRD 69"
Water,330.25,0.98466,"NIST Chemistry WebBook, SRD 69"
Water,330.35,0.98461,"NIST Chemistry WebBook, SRD 69"
Water,330.45,0.98456,"NIST Chemistry WebBook, SRD 69"
Water,330.55,0.98451,"NIST Chemistry WebBook, SRD 69"
Water,330.65,0.98446,"NIST Chemistry WebBook, SRD 69"
Water,330.75,0.98441,"NIST Chemistry WebBook, SRD 69"
Water,330.85,0.98436,"NIST Chemistry WebBook, SRD 69"
Water,330.95,0.98431,"NIST Chemistry WebBook, SRD 69"
Water,331.05,0.98426,"NIST Chemistry WebBook, SRD 69"
Water,331.15,0.98421,"NIST Chemistry WebBook, SRD 69"
Water,331.25,0.98416,"NIST Chemistry WebBook, SRD 69"
Water,331.35,0.98411,"NIST Chemistry WebBook, SRD 69"
Water,331.45,0.98406,"NIST Chemistry WebBook, SRD 69"
Water,331.55,0.98401,"NIST Chemistry WebBook, SRD 69"
Water,331.65,0.98396,"NIST Chemistry WebBook, SRD 69"
Water,331.75,0.98391,"NIST Chemistry WebBook, SRD 69"
Water,331.85,0.98386,"NIST Chemistry WebBook, SRD 69"
Water,331.95,0.98381,"NIST Chemistry WebBook, SRD 69"
Water,332.05,0.98376,"NIST Chemistry WebBook, SRD 69"
Water,332.15,0.98371,"NIST Chemistry WebBook, SRD 69"
Water,332.25,0.98366,"NIST Chemistry WebBook, SRD 69"
Water,332.35,0.98361,"NIST Chemistry WebBook, SRD 69"
Water,332.45,0.98355,"NIST Chemistry WebBook, SRD 69"
Water,332.55,0.9835,"NIST Chemistry WebBook, SRD 69"
Water,332.65,0.98345,"NIST Chemistry WebBook, SRD 69"
Water,332.75,0.9834,"NIST Chemistry WebBook, SRD 69"
Water,332.85,0.98335,"NIST Chemistry WebBook, SRD 69"
Water,332.95,0.9833,"NIST Chemistry WebBook, SRD 69"
Water,333.05,0.98325,"NIST Chemistry WebBook, SRD 69"
Water,333.15,0.9832,"NIST Chemistry WebBook, SRD 69"
Water,333.25,0.98314,"NIST Chemistry WebBook, SRD 69"
Water,333.35,0.98309,"NIST Chemistry WebBook, SRD 69"
Water,333.45,0.98304,"NIST Chemistry WebBook, SRD 69"
Water,333.55,0.98299,"NIST Chemistry WebBook, SRD 69"
Water,333.65,0.98294,"NIST Chemistry WebBook, SRD 69"
Water,333.75,0.98289,"NIST Chemistry WebBook, SRD 69"
Water,333.85,0.98283,"NIST Chemistry WebBook, SRD 69"
Water,333.95,0.98278,"NIST Chemistry WebBook, SRD 69"
Water,334.05,0.98273,"NIST Chemistry WebBook, SRD 69"
Water,334.15,0.98268,"NIST Chemistry WebBook, SRD 69"
Water,334.25,0.98263,"NIST Chemistry WebBook, SRD 69"
Water,334.35,0.98257,"NIST Chemistry WebBook, SRD 69"
Water,334.45,0.98252,"NIST Chemistry WebBook, SRD 69"
Water,334.55,0.98247,"NIST Chemistry WebBook, SRD 69"
Water,334.65,0.98242,"NIST Chemistry WebBook, SRD 69"
Water,334.75,0.98237,"NIST Chemistry WebBook, SRD 69"
Water,334.85,0.98231,"NIST Chemistry WebBook, SRD 69"
Water,334.95,0.98226,"NIST Chemistry WebBook, SRD 69"
Water,335.05,0.98221,"NIST Chemistry WebBook, SRD 69"
Water,335.15,0.98216,"NIST Chemistry WebBook, SRD 69"
Water,335.25,0.9821,"NIST Chemistry WebBook, SRD 69"
Water,335.35,0.98205,"NIST Chemistry WebBook, SRD 69"
Water,335.45,0.982,"NIST Chemistry WebBook, SRD 69"
Water,335.55,0.98194,"NIST Chemistry WebBook, SRD 69"
Water,335.65,0.98189,"NIST Chemistry WebBook, SRD 69"
Water,335.75,0.98184,"NIST Chemistry WebBook, SRD 69"
Water,335.85,0.98179,"NIST Chemistry WebBook, SRD 69"
Water,335.95,0.98173,"NIST Chemistry WebBook, SRD 69"
Water,336.05,0.98168,"NIST Chemistry WebBook, SRD 69"
Water,336.15,0.98163,"NIST Chemistry WebBook, SRD 69"
Water,336.25,0.98157,"NIST Chemistry WebBook, SRD 69"
Water,336.35,0.98152,"NIST Chemistry WebBook, SRD 69"
Water,336.45,0.98147,"NIST Chemistry WebBook, SRD 69"
Water,336.55,0.98141,"NIST Chemistry WebBook, SRD 69"
Water,336.65,0.98136,"NIST Chemistry WebBook, SRD 69"
Water,336.75,0.98131,"NIST Chemistry WebBook, SRD 69"
Water,336.85,0.98125,"NIST Chemistry WebBook, SRD 69"
Water,336.95,0.9812,"NIST Chemistry WebBook, SRD 69"
Water,337.05,0.98115,"NIST Chemistry WebBook, SRD 69"
Water,337.15,0.98109,"NIST Chemistry WebBook, SRD 69"
Water,337.25,0.98104,"NIST Chemistry WebBook, SRD 69"
Water,337.35,0.98098,"NIST Chemistry WebBook, SRD 69"
Water,337.45,0.98093,"NIST Chemistry WebBook, SRD 69"
Water,337.55,0.98088,"NIST Chemistry WebBook, SRD 69"
Water,337.65,0.98082,"NIST Chemistry WebBook, SRD 69"
Water,337.75,0.98077,"NIST Chemistry WebBook, SRD 69"
Water,337.85,0.98071,"NIST Chemistry WebBook, SRD 69"
Water,337.95,0.98066,"NIST Chemistry WebBook, SRD 69"
Water,338.05,0.98061,"NIST Chemistry WebBook, SRD 69"
Water,338.15,0.98055,"NIST Chemistry WebBook, SRD 69"
Water,338.25,0.9805,"NIST Chemistry WebBook, SRD 69"
Water,338.35,0.98044,"NIST Chemistry WebBook, SRD 69"
Water,338.45,0.98039,"NIST Chemistry WebBook, SRD 69"
Water,338.55,0.98033,"NIST Chemistry WebBook, SRD 69"
Water,338.65,0.98028,"NIST Chemistry WebBook, SRD 69"
Water,338.75,0.98022,"NIST Chemistry WebBook, SRD 69"
Water,338.85,0.98017,"NIST Chemistry WebBook, SRD 69"
Water,338.95,0.98011,"NIST Chemistry WebBook, SRD 69"
Water,339.05,0.98006,"NIST Chemistry WebBook, SRD 69"
Water,339.15,0.98,"NIST Chemistry WebBook, SRD 69"
Water,339.25,0.97995,"NIST Chemistry WebBook, SRD 69"
Water,339.35,0.97989,"NIST Chemistry WebBook, SRD 69"
Water,339.45,0.97984,"NIST Chemistry WebBook, SRD 69"
Water,339.55,0.97978,"NIST Chemistry WebBook, SRD 69"
Water,339.65,0.97973,"NIST Chemistry WebBook, SRD 69"
Water,339.75,0.97967,"NIST Chemistry WebBook, SRD 69"
Water,339.85,0.97962,"NIST Chemistry WebBook, SRD 69"
Water,339.95,0.97956,"NIST Chemistry WebBook, SRD 69"
Water,340.05,0.97951,"NIST Chemistry WebBook, SRD 69"
Water,340.15,0.97945,"NIST Chemistry WebBook, SRD 69"
Water,340.25,0.9794,"NIST Chemistry WebBook, SRD 69"
Water,340.35,0.97934,"NIST Chemistry WebBook, SRD 69"
Water,340.45,0.97929,"NIST Chemistry WebBook, SRD 69"
Water,340.55,0.97923,"NIST Chemistry WebBook, SRD 69"
Water,340.65,0.97918,"NIST Chemistry WebBook, SRD 69"
Water,340.75,0.97912,"NIST Chemistry WebBook, SRD 69"
Water,340.85,0.97906,"NIST Chemistry WebBook, SRD 69"
Water,340.95,0.97901,"NIST Chemistry WebBook, SRD 69"
Water,341.05,0.97895,"NIST Chemistry WebBook, SRD 69"
Water,341.15,0.9789,"NIST Chemistry WebBook, SRD 69"
Water,341.25,0.97884,"NIST Chemistry WebBook, SRD 69"
Water,341.35,0.97878,"NIST Chemistry WebBook, SRD 69"
Water,341.45,0.97873,"NIST Chemistry WebBook, SRD 69"
Water,341.55,0.97867,"NIST Chemistry WebBook, SRD 69"
Water,341.65,0.97861,"NIST Chemistry WebBook, SRD 69"
Water,341.75,0.97856,"NIST Chemistry WebBook, SRD 69"
Water,341.85,0.9785,"NIST Chemistry WebBook, SRD 69"
Water,341.95,0.97845,"NIST Chemistry WebBook, SRD 69"
Water,342.05,0.97839,"NIST Chemistry WebBook, SRD 69"
Water,342.15,0.97833,"NIST Chemistry WebBook, SRD 69"
Water,342.25,0.97828,"NIST Chemistry WebBook, SRD 69"
Water,342.35,0.97822,"NIST Chemistry WebBook, SRD 69"
Water,342.45,0.97816,"NIST Chemistry WebBook, SRD 69"
Water,342.55,0.97811,"NIST Chemistry WebBook, SRD 69"
Water,342.65,0.97805,"NIST Chemistry WebBook, SRD 69"
Water,342.75,0.97799,"NIST Chemistry WebBook, SRD 69"
Water,342.85,0.97794,"NIST Chemistry WebBook, SRD 69"
Water,342.95,0.97788,"NIST Chemistry WebBook, SRD 69"
Water,343.05,0.97782,"NIST Chemistry WebBook, SRD 69"
Water,343.15,0.97776,"NIST Chemistry WebBook, SRD 69"
Water,343.25,0.97771,"NIST Chemistry WebBook, SRD 69"
Water,343.35,0.97765,"NIST Chemistry WebBook, SRD 69"
Water,343.45,0.97759,"NIST Chemistry WebBook, SRD 69"
Water,343.55,0.97754,"NIST Chemistry WebBook, SRD 69"
Water,343.65,0.97748,"NIST Chemistry WebBook, SRD 69"
Water,343.75,0.97742,"NIST Chemistry WebBook, SRD 69"
Water,343.85,0.97736,"NIST Chemistry WebBook, SRD 69"
Water,343.95,0.97731,"NIST Chemistry WebBook, SRD 69"
Water,344.05,0.97725,"NIST Chemistry WebBook, SRD 69"
Water,344.15,0.97719,"NIST Chemistry WebBook, SRD 69"
Water,344.25,0.97713,"NIST Chemistry WebBook, SRD 69"
Water,344.35,0.97708,"NIST Chemistry WebBook, SRD 69"
Water,344.45,0.97702,"NIST Chemistry WebBook, SRD 69"
Water,344.55,0.97696,"NIST Chemistry WebBook, SRD 69"
Water,344.65,0.9769,"NIST Chemistry WebBook, SRD 69"
Water,344.75,0.97684,"NIST Chemistry WebBook, SRD 69"
Water,344.85,0.97679,"NIST Chemistry WebBook, SRD 69"
Water,344.95,0.97673,"NIST Chemistry WebBook, SRD 69"
Water,345.05,0.97667,"NIST Chemistry WebBook, SRD 69"
Water,345.15,0.97661,"NIST Chemistry WebBook, SRD 69"
Water,345.25,0.97655,"NIST Chemistry WebBook, SRD 69"
Water,345.35,0.9765,"NIST Chemistry WebBook, SRD 69"
Water,345.45,0.97644,"NIST Chemistry WebBook, SRD 69"
Water,345.55,0.97638,"NIST Chemistry WebBook, SRD 69"
Water,345.65,0.97632,"NIST Chemistry WebBook, SRD 69"
Water,345.75,0.97626,"NIST Chemistry WebBook, SRD 69"
Water,345.85,0.9762,"NIST Chemistry WebBook, SRD 69"
Water,345.95,0.97614,"NIST Chemistry WebBook, SRD 69"
Water,346.05,0.97609,"NIST Chemistry WebBook, SRD 69"
Water,346.15,0.97603,"NIST Chemistry WebBook, SRD 69"
Water,346.25,0.97597,"NIST Chemistry WebBook, SRD 69"
Water,346.35,0.97591,"NIST Chemistry WebBook, SRD 69"
Water,346.45,0.97585,"NIST Chemistry WebBook, SRD 69"
Water,346.55,0.97579,"NIST Chemistry WebBook, SRD 69"
Water,346.65,0.97573,"NIST Chemistry WebBook, SRD 69"
Water,346.75,0.97567,"NIST Chemistry WebBook, SRD 69"
Water,346.85,0.97562,"NIST Chemistry WebBook, SRD 69"
Water,346.95,0.97556,"NIST Chemistry WebBook, SRD 69"
Water,347.05,0.9755,"NIST Chemistry WebBook, SRD 69"
Water,347.15,0.97544,"NIST Chemistry WebBook, SRD 69"
Water,347.25,0.97538,"NIST Chemistry WebBook, SRD 69"
Water,347.35,0.97532,"NIST Chemistry WebBook, SRD 69"
Water,347.45,0.97526,"NIST Chemistry WebBook, SRD 69"
Water,347.55,0.9752,"NIST Chemistry WebBook, SRD 69"
Water,347.65,0.97514,"NIST Chemistry WebBook, SRD 69"
Water,347.75,0.97508,"NIST Chemistry WebBook, SRD 69"
Water,347.85,0.97502,"NIST Chemistry WebBook, SRD 69"
Water,347.95,0.97496,"NIST Chemistry WebBook, SRD 69"
Water,348.05,0.9749,"NIST Chemistry WebBook, SRD 69"
Water,348.15,0.97484,"NIST Chemistry WebBook, SRD 69"
Water,348.25,0.97478,"NIST Chemistry WebBook, SRD 69"
Water,348.35,0.97472,"NIST Chemistry WebBook, SRD 69"
Water,348.45,0.97466,"NIST Chemistry WebBook, SRD 69"
Water,348.55,0.9746,"NIST Chemistry WebBook, SRD 69"
Water,348.65,0.97454,"NIST Chemistry WebBook, SRD 69"
Water,348.75,0.97448,"NIST Chemistry WebBook, SRD 69"
Water,348.85,0.97442,"NIST Chemistry WebBook, SRD 69"
Water,348.95,0.97436,"NIST Chemistry WebBook, SRD 69"
Water,349.05,0.9743,"NIST Chemistry WebBook, SRD 69"
Water,349.15,0.97424,"NIST Chemistry WebBook, SRD 69"
Water,349.25,0.97418,"NIST Chemistry WebBook, SRD 69"
Water,349.35,0.97412,"NIST Chemistry WebBook, SRD 69"
Water,349.45,0.97406,"NIST Chemistry WebBook, SRD 69"
Water,349.55,0.974,"NIST Chemistry WebBook, SRD 69"
Water,349.65,0.97394,"NIST Chemistry WebBook, SRD 69"
Water,349.75,0.97388,"NIST Chemistry WebBook, SRD 69"
Water,349.85,0.97382,"NIST Chemistry WebBook, SRD 69"
Water,349.95,0.97376,"NIST Chemistry WebBook, SRD 69"