Solvent,Temperature_K,Density_g/cm^3,Source
dmso,333.15,1.06063,10.1021/je300316a
dmso,293.15,1.10053,10.1021/je990271t
dmso,303.15,1.09049,10.1021/je990271t
dmso,313.15,1.08032,10.1021/je990271t
dmac,303.15,0.93169,10.1021/acs.jced.5b00753
dmac,313.15,0.92244,10.1021/acs.jced.5b00753
dmac,323.15,0.91317,10.1021/acs.jced.5b00753
dmac,333.15,0.90386,10.1021/acs.jced.5b00753
dmac,303.15,0.93158,10.1021/je060301+
dmac,313.15,0.92233,10.1021/je060301+
dmac,323.15,0.91305,10.1021/je060301+
dmac,333.15,0.90374,10.1021/je060301+
dmac,303.15,0.93168,10.1007/s10953-014-0273-1
dmac,313.15, 0.92244,10.1007/s10953-014-0273-1
dmac,323.15, 0.91316,10.1007/s10953-014-0273-1
dmac,333.15, 0.90375,10.1007/s10953-014-0273-1
isobutanol,288.15,0.80588,10.1021/acs.jced.6b00640
isobutanol,293.15,0.80203,10.1021/acs.jced.6b00640
isobutanol,298.15,0.79816,10.1021/acs.jced.6b00640
isobutanol,303.15,0.79425,10.1021/acs.jced.6b00640
isobutanol,308.15,0.79031,10.1021/acs.jced.6b00640
isobutanol,313.15,0.78631,10.1021/acs.jced.6b00640
isobutanol,318.15,0.78226,10.1021/acs.jced.6b00640
isobutanol,323.15,0.77814,10.1021/acs.jced.6b00640
isobutanol,288.15,0.80568,10.1016/S0378-3812(00)00300-9
isobutanol,298.15,0.79742,10.1016/S0378-3812(00)00300-9
isobutanol,308.15,0.79029,10.1016/S0378-3812(00)00300-9
isobutanol,318.15,0.78220,10.1016/S0378-3812(00)00300-9
isobutanol,298.15,0.79808,10.1021/je010249b
2-Butanone,288.15,0.81001,10.1016/S0378-3812(00)00300-9
2-Butanone,298.15,0.79961,10.1016/S0378-3812(00)00300-9
2-Butanone,303.15,0.79438,10.1016/S0378-3812(00)00300-9
2-Butanone,308.15,0.78918,10.1016/S0378-3812(00)00300-9
2-Butanone,313.15,0.78375,10.1016/S0378-3812(00)00300-9
2-Butanone,318.15,0.77837,10.1016/S0378-3812(00)00300-9
2-Butanone,278.15,0.820633,10.1023/a:1021463705444
2-Butanone,283.15,0.815472,10.1023/a:1021463705444
2-Butanone,288.15,0.810305,10.1023/a:1021463705444
2-Butanone,293.15,0.805129,10.1023/a:1021463705444
2-Butanone,298.15,0.799891,10.1023/a:1021463705444
2-Butanone,303.15,0.794672,10.1023/a:1021463705444
2-Butanone,308.15,0.789402,10.1023/a:1021463705444
2-Butanone,313.15,0.784122,10.1023/a:1021463705444
2-Butanone,318.15,0.778826,10.1023/a:1021463705444
2-Butanone,323.15,0.773531,10.1023/a:1021463705444
2-Butanone,328.15,0.768202,10.1023/a:1021463705444
2-Butanone,333.15,0.762849,10.1023/a:1021463705444
sec-Butanol,288.15,0.81044,10.1016/S0378-3812(00)00300-9
sec-Butanol,298.15,0.80206,10.1016/S0378-3812(00)00300-9
sec-Butanol,308.15,0.79398,10.1016/S0378-3812(00)00300-9
sec-Butanol,318.15,0.7850,10.1016/S0378-3812(00)00300-9
sec-Butanol,293.15,0.8062,10.1021/acs.jced.8b01097
sec-Butanol,298.15,0.8020,10.1021/acs.jced.8b01097
sec-Butanol,303.15,0.7979,10.1021/acs.jced.8b01097
sec-Butanol,308.15,0.7936,10.1021/acs.jced.8b01097
sec-Butanol,313.15,0.7892,10.1021/acs.jced.8b01097
sec-Butanol,318.15,0.7847,10.1021/acs.jced.8b01097
sec-Butanol,323.15,0.7802,10.1021/acs.jced.8b01097
sec-Butanol,288.15,0.810524,10.1021/je401036f
sec-Butanol,293.15,0.806487,10.1021/je401036f
sec-Butanol,298.15,0.802373,10.1021/je401036f
sec-Butanol,303.15,0.798174,10.1021/je401036f
sec-Butanol,308.15,0.793881,10.1021/je401036f
sec-Butanol,313.15,0.789487,10.1021/je401036f
sec-Butanol,318.15,0.784988,10.1021/je401036f
sec-Butanol,323.15,0.780380,10.1021/je401036f
sec-Butanol,328.15,0.775656,10.1021/je401036f
sec-Butanol,333.15,0.770820,10.1021/je401036f
m-xylene,293.15,0.8640,10.1016/j.molliq.2012.10.021
m-xylene,303.15,0.8550,10.1016/j.molliq.2012.10.021
m-xylene,313.15,0.8460,10.1016/j.molliq.2012.10.021
m-xylene,323.15,0.8380,10.1016/j.molliq.2012.10.021
m-xylene,293.15,0.86431,10.1016/j.molliq.2007.06.007
m-xylene,303.15,0.85564,10.1016/j.molliq.2007.06.007
m-xylene,313.15,0.8469,10.1016/j.molliq.2007.06.007
m-xylene,323.15,0.83809,10.1016/j.molliq.2007.06.007
m-xylene,333.15,0.82922,10.1016/j.molliq.2007.06.007
m-xylene,343.15,0.82029,10.1016/j.molliq.2007.06.007
o-xylene,293.15,0.8794,10.1016/j.molliq.2012.10.021
o-xylene,303.15, 0.8711,10.1016/j.molliq.2012.10.021
o-xylene,313.15,0.8626,10.1016/j.molliq.2012.10.021
o-xylene,323.15,0.8541,10.1016/j.molliq.2012.10.021
o-xylene,293.15,0.87984,10.1016/j.molliq.2007.06.007
o-xylene,303.15,0.87148,10.1016/j.molliq.2007.06.007
o-xylene,313.15,0.86303,10.1016/j.molliq.2007.06.007
o-xylene,323.15,0.85451,10.1016/j.molliq.2007.06.007
o-xylene,333.15,0.84591,10.1016/j.molliq.2007.06.007
o-xylene,343.15,0.83723,10.1016/j.molliq.2007.06.007
p-xylene,293.15,0.8605,10.1016/j.molliq.2012.10.021
p-xylene,303.15,0.8518,10.1016/j.molliq.2012.10.021
p-xylene,313.15,0.8430,10.1016/j.molliq.2012.10.021
p-xylene,323.15,0.8342,10.1016/j.molliq.2012.10.021
p-xylene,293.15,0.86095,10.1016/j.molliq.2007.06.007
p-xylene,303.15,0.8523,10.1016/j.molliq.2007.06.007
p-xylene,313.15,0.84357,10.1016/j.molliq.2007.06.007
p-xylene,323.15,0.83476,10.1016/j.molliq.2007.06.007
p-xylene,333.15,0.82586,10.1016/j.molliq.2007.06.007
p-xylene,343.15,0.81687,10.1016/j.molliq.2007.06.007
propylene glycol,293.15,1.03654,10.1002/bscb.19750841112
propylene glycol,298.15,1.03287,10.1002/bscb.19750841112
propylene glycol,303.15,1.02912,10.1002/bscb.19750841112
propylene glycol,308.15,1.02585,10.1002/bscb.19750841112
propylene glycol,313.15,1.02192,10.1002/bscb.19750841112
propylene glycol,318.15,1.0184,10.1002/bscb.19750841112
propylene glycol,293.15,1.0368,10.1016/j.molliq.2018.08.023
propylene glycol,298.15,1.0331,10.1016/j.molliq.2018.08.023
propylene glycol,303.15,1.0291,10.1016/j.molliq.2018.08.023
propylene glycol,308.15,1.0253,10.1016/j.molliq.2018.08.023
propylene glycol,313.15,1.0224,10.1016/j.molliq.2018.08.023
propylene glycol,318.15,1.0173,10.1016/j.molliq.2018.08.023
propylene glycol,298.15,1.03256,10.1016/j.fluid.2017.07.006
propylene glycol,303.15,1.02887,10.1016/j.fluid.2017.07.006
propylene glycol,312.98,1.02216,10.1016/j.fluid.2017.07.006
propylene glycol,335.78,1.00531,10.1016/j.fluid.2017.07.006
ethylene glycol,298.15,1.1098,10.1016/j.molliq.2015.04.001
ethylene glycol,303.15,1.1063,10.1016/j.molliq.2015.04.001
ethylene glycol,308.15,1.1027,10.1016/j.molliq.2015.04.001
ethylene glycol,313.15,1.0992,10.1016/j.molliq.2015.04.001
ethylene glycol,318.15,1.0956,10.1016/j.molliq.2015.04.001
ethylene glycol,323.15,1.0921,10.1016/j.molliq.2015.04.001
ethylene glycol,273.16,1.12716,10.1021/je800694a
ethylene glycol,278.15,1.12371,10.1021/je800694a
ethylene glycol,283.15,1.12023,10.1021/je800694a
ethylene glycol,288.15,1.11676,10.1021/je800694a
ethylene glycol,293.15,1.11327,10.1021/je800694a
ethylene glycol,298.15,1.10977,10.1021/je800694a
ethylene glycol,303.15,1.10625,10.1021/je800694a
ethylene glycol,308.15,1.10272,10.1021/je800694a
ethylene glycol,313.15,1.09917,10.1021/je800694a
ethylene glycol,318.15,1.09561,10.1021/je800694a
ethylene glycol,323.15,1.09202,10.1021/je800694a
ethylene glycol,328.14,1.08841,10.1021/je800694a
ethylene glycol,333.15,1.08478,10.1021/je800694a
ethylene glycol,338.15,1.08111,10.1021/je800694a
nmp,293.15,1.0336,10.1021/je200121f
nmp,303.15, 1.0247,10.1021/je200121f
nmp,313.15,1.0157,10.1021/je200121f
nmp,323.15, 1.0068,10.1021/je200121f
nmp,293.15,1.0336,10.1016/j.jct.2013.01.020
nmp,303.15, 1.0247,10.1016/j.jct.2013.01.020
nmp,313.15,1.0157,10.1016/j.jct.2013.01.020
nmp,323.15, 1.0068,10.1016/j.jct.2013.01.020
nmp,293.15,1.03287,10.1021/je100967k
nmp,303.15,1.02395,10.1021/je100967k
nmp,313.15,1.01503,10.1021/je100967k
nmp,323.15,1.00610,10.1021/je100967k
nmp,293.151,1.03225,10.1021/acs.jced.5b00474
nmp,298.149,1.027794,10.1021/acs.jced.5b00474
nmp,303.154,1.023332,10.1021/acs.jced.5b00474
nmp,308.155,1.018871,10.1021/acs.jced.5b00474
nmp,313.155,1.01441,10.1021/acs.jced.5b00474
nmp,318.155,1.009948,10.1021/acs.jced.5b00474
nmp,323.157,1.005483,10.1021/acs.jced.5b00474
chloroform,273.15,1.526,10.1021/je100821g
chloroform,283.15,1.5071,10.1021/je100821g
chloroform,293.15,1.4884,10.1021/je100821g
chloroform,298.15,1.4788,10.1021/je100821g
chloroform,303.15,1.4692,10.1021/je100821g
chloroform,313.15,1.4500,10.1021/je100821g
chloroform,318.15,1.4400,10.1021/je100821g
chloroform,298.15,1.4788,10.1021/je980031y
chloroform,303.15,1.4692,10.1021/je980031y
chloroform,308.15,1.4594,10.1021/je980031y
chloroform,283.15,1.5073,10.1021/je060150a
chloroform,293.15,1.4884,10.1021/je060150a
chloroform,303.15,1.4694,10.1021/je060150a
chloroform,313.15,1.4500,10.1021/je060150a
ethylbenzene,293.15,0.86695,10.1021/je500498m
ethylbenzene,303.15,0.85815,10.1021/je500498m
ethylbenzene,313.15,0.84929,10.1021/je500498m
ethylbenzene,323.15,0.84038,10.1021/je500498m
ethylbenzene,333.15,0.8314,10.1021/je500498m
ethylbenzene,343.15,0.8223,10.1021/je500498m
ethylbenzene,293.15,0.8672,10.1021/je00060a030
ethylbenzene,298.15,0.8620,10.1021/je00060a030
ethylbenzene,308.15,0.8533,10.1021/je00060a030
ethylbenzene,313.15,0.8495,10.1021/je00060a030
ethylbenzene,303.15,0.8576,10.1007/s10953-010-9610-1
ethylbenzene,313.15,0.8492,10.1007/s10953-010-9610-1
isopropyl acetate,298.15,0.86622,10.1007/bf02705587
isopropyl acetate,298.15,0.86647 ,10.1021/je00003a017
isopropyl acetate,308.15,0.85415,10.1021/je00003a017
isopropyl acetate,298.15,"0,86618",10.1021/je0100342
isopropyl acetate,293.15,0.874,Handbook of organic solvent properties Ian M. Smallwood
Dichloromethane,298.15,1.3163,10.1021/je980145+
Dichloromethane,303.15,1.3064,10.1021/je980145+
Dichloromethane,308.15,1.2972,10.1021/je980145+
Dichloromethane,270,1.36799,10.1016/j.jct.2010.08.001
Dichloromethane,281,1.34876,10.1016/j.jct.2010.08.001
Dichloromethane,290,1.33185,10.1016/j.jct.2010.08.001
Dichloromethane,293.15,1.32635,10.1016/j.jct.2010.08.001
Dichloromethane,298.15,1.31678,10.1016/j.jct.2010.08.001
Dichloromethane,310,1.29371,10.1016/j.jct.2010.08.001
Dichloromethane,303.15,1.3076,10.1021/je020067x
"1,2-dichloroethane",298.15,1.2455,10.1021/je00061a008
"1,2-dichloroethane",303.15,1.2382,10.1021/je00061a008
"1,2-dichloroethane",308.15,1.2304,10.1021/je00061a008
"1,2-dichloroethane",313.15,1.2234,10.1021/je00061a008
"1,2-dichloroethane",303.15,1.2396,10.1080/00319109608039825
"1,2-dichloroethane",313.15 ,1.2236 ,10.1080/00319109608039825
"1,2-dichloroethane",323.15,1.2088,10.1080/00319109608039825
"1,2-dichloroethane",293.15,1.2533,10.1134/s1070363212020065
"1,2-dichloroethane",293.15,1.2519,10.1021/je900212d
"1,2-dichloroethane",298.15,1.2474,10.1021/je900212d
"1,2-dichloroethane",303.15,1.239,10.1021/je900212d
"1,2-dichloroethane",308.15,1.2312,10.1021/je900212d
"1,2-dichloroethane",313.15,1.222,10.1021/je900212d
Cyclohexanone,298.15,0.9420,10.1021/je9802266
Cyclohexanone,303.15,0.9374,10.1021/je9802266
Cyclohexanone,308.15,0.9328 ,10.1021/je9802266
Cyclohexanone,298.15,0.9425,10.1021/je0201828
Cyclohexanone,303.15,0.9373,10.1021/je0201828
Cyclohexanone,308.15,0.9323,10.1021/je0201828
2-methoxyethanol,293.15,0.9647,10.1021/acs.jced.9b00364
2-methoxyethanol,298.15,0.9602,10.1021/acs.jced.9b00364
2-methoxyethanol,303.15,0.9555,10.1021/acs.jced.9b00364
2-methoxyethanol,308.15,0.9509,10.1021/acs.jced.9b00364
2-methoxyethanol,313.15,0.9462,10.1021/acs.jced.9b00364
2-methoxyethanol,318.15,0.9415,10.1021/acs.jced.9b00364
2-methoxyethanol,323.15,0.9368,10.1021/acs.jced.9b00364
2-methoxyethanol,328.15,0.9320,10.1021/acs.jced.9b00364
2-methoxyethanol,333.15,0.9272,10.1021/acs.jced.9b00364
2-methoxyethanol,338.15,0.9224,10.1021/acs.jced.9b00364
2-methoxyethanol,343.15,0.9175,10.1021/acs.jced.9b00364
2-methoxyethanol,293.15,0.96486,10.1016/j.jct.2006.06.001
2-methoxyethanol,303.15,0.95568,10.1016/j.jct.2006.06.001
2-methoxyethanol,313.15,0.94638,10.1016/j.jct.2006.06.001
2-methoxyethanol,323.15,0.93695,10.1016/j.jct.2006.06.001
2-methoxyethanol,333.15,0.92738,10.1016/j.jct.2006.06.001
2-methoxyethanol,343.15,0.91764,10.1016/j.jct.2006.06.001
2-methoxyethanol,291.15,0.96652,10.1023/a:1014981921097
2-methoxyethanol,293.15,0.96488,10.1023/a:1014981921097
2-methoxyethanol,298.15,0.96029,10.1023/a:1014981921097
2-methoxyethanol,303.15,0.95576,10.1023/a:1014981921097
2-methoxyethanol,308.15,0.9511,10.1023/a:1014981921097
2-methoxyethanol,298.15, 0.9595,10.1021/je100170v
2-methoxyethanol,308.15,0.9521,10.1021/je100170v
2-methoxyethanol,318.15,0.9458,10.1021/je100170v
2-ethoxyethanol,293.15,0.9295,10.1021/acs.jced.9b00364
2-ethoxyethanol,298.15,0.9250,10.1021/acs.jced.9b00364
2-ethoxyethanol,303.15,0.9205,10.1021/acs.jced.9b00364
2-ethoxyethanol,308.15,0.9159,10.1021/acs.jced.9b00364
2-ethoxyethanol,313.15,0.9113,10.1021/acs.jced.9b00364
2-ethoxyethanol,318.15,0.9066,10.1021/acs.jced.9b00364
2-ethoxyethanol,323.15,0.9019,10.1021/acs.jced.9b00364
2-ethoxyethanol,328.15,0.8972,10.1021/acs.jced.9b00364
2-ethoxyethanol,333.15,0.8924,10.1021/acs.jced.9b00364
2-ethoxyethanol,338.15,0.8876,10.1021/acs.jced.9b00364
2-ethoxyethanol,343.15,0.8827,10.1021/acs.jced.9b00364
2-ethoxyethanol,298.15,0.9256,10.1007/s10973-015-5205-9
2-ethoxyethanol,308.15,0.916521,10.1007/s10973-015-5205-9
2-ethoxyethanol,318.15,0.907318,10.1007/s10973-015-5205-9
2-ethoxyethanol,328.15,0.898442,10.1007/s10973-015-5205-9
2-ethoxyethanol,288.15,0.935030,10.1016/j.molliq.2011.08.008
2-ethoxyethanol,293.15,0.930528,10.1016/j.molliq.2011.08.008
2-ethoxyethanol,298.15,0.925999,10.1016/j.molliq.2011.08.008
2-ethoxyethanol,303.15,0.921458,10.1016/j.molliq.2011.08.008
2-ethoxyethanol,308.15,0.916868,10.1016/j.molliq.2011.08.008
2-ethoxyethanol,313.15,0.912241,10.1016/j.molliq.2011.08.008
2-ethoxyethanol,318.15,0.907588,10.1016/j.molliq.2011.08.008
2-butoxyethanol,293.15,0.9004,10.1021/acs.jced.9b00364
2-butoxyethanol,298.15,0.8962,10.1021/acs.jced.9b00364
2-butoxyethanol,303.15,0.8920,10.1021/acs.jced.9b00364
2-butoxyethanol,308.15,0.8878,10.1021/acs.jced.9b00364
2-butoxyethanol,313.15,0.8835,10.1021/acs.jced.9b00364
2-butoxyethanol,318.15,0.8792,10.1021/acs.jced.9b00364
2-butoxyethanol,323.15,0.8749,10.1021/acs.jced.9b00364
2-butoxyethanol,328.15,0.8706,10.1021/acs.jced.9b00364
2-butoxyethanol,333.15,0.8662,10.1021/acs.jced.9b00364
2-butoxyethanol,338.15,0.8618,10.1021/acs.jced.9b00364
2-butoxyethanol,343.15,0.8573,10.1021/acs.jced.9b00364
2-butoxyethanol,293.15,0.90118,10.1021/je900478c
2-butoxyethanol,313.15,0.88421,10.1021/je900478c
2-butoxyethanol,293.15,0.9006,10.1016/j.molliq.2020.113351
2-butoxyethanol,298.15,0.8964,10.1016/j.molliq.2020.113351
2-butoxyethanol,303.15,0.8922,10.1016/j.molliq.2020.113351
2-butoxyethanol,308.15,0.8880,10.1016/j.molliq.2020.113351
2-butoxyethanol,313.15,0.8837,10.1016/j.molliq.2020.113351
2-butoxyethanol,318.15,0.8794,10.1016/j.molliq.2020.113351
2-butoxyethanol,323.15,0.8751,10.1016/j.molliq.2020.113351
2-butoxyethanol,328.15,0.8708,10.1016/j.molliq.2020.113351
2-butoxyethanol,333.15,0.8664,10.1016/j.molliq.2020.113351
2-butoxyethanol,338.15,0.8620,10.1016/j.molliq.2020.113351
2-butoxyethanol,343.15,0.8575,10.1016/j.molliq.2020.113351
2-propoxyethanol,298.15,0.90819,10.1080/00319104.2014.890898
2-propoxyethanol,298.15,0.9074,10.1021/je60081a028
2-propoxyethanol,298.15,0.90723,10.1016/j.fluid.2017.10.027
2-propoxyethanol,288.15,0.915949,10.1016/j.jct.2016.07.002
2-propoxyethanol,293.15,0.911592,10.1016/j.jct.2016.07.002
2-propoxyethanol,298.15,0.907213,10.1016/j.jct.2016.07.002
2-propoxyethanol,303.15,0.902807,10.1016/j.jct.2016.07.002
2-propoxyethanol,308.15,0.898373,10.1016/j.jct.2016.07.002
2-propoxyethanol,313.15,0.893908,10.1016/j.jct.2016.07.002
2-propoxyethanol,318.15,0.889409,10.1016/j.jct.2016.07.002
2-propoxyethanol,298.15,0.9080,10.1021/je0000120
transcutol,293.15,0.987497,10.1021/acs.jced.9b00959
transcutol,298.15,0.983059,10.1021/acs.jced.9b00959
transcutol,303.15,0.978598,10.1021/acs.jced.9b00959
transcutol,313.15,0.969649,10.1021/acs.jced.9b00959
transcutol,323.15,0.960644,10.1021/acs.jced.9b00959
transcutol,293.15,0.987876,10.1021/je700281z
transcutol,298.15,0.983336,10.1021/je700281z
transcutol,303.15,0.978788,10.1021/je700281z
n-pentyl acetate,303.15,0.86644,10.1016/0378-3812(94)80121-5
n-pentyl acetate,303.15,0.86470,10.1016/S0378-3812(02)00262-5
n-pentyl acetate,283.15,0.88794,10.1080/00319100701790689
n-pentyl acetate,288.15,0.88380,10.1080/00319100701790689
n-pentyl acetate,298.15,0.87380,10.1080/00319100701790689
n-pentyl acetate,303.15,0.87030,10.1080/00319100701790689
n-pentyl acetate,298.15,0.8699,10.1021/acs.jced.4c00035
n-pentyl acetate,303.15,0.8657,10.1021/acs.jced.4c00035
n-pentyl acetate,308.15,0.8601,10.1021/acs.jced.4c00035
n-pentyl acetate,298.15,0.87132,10.1016/j.molliq.2018.03.025
n-pentyl acetate,303.15,0.865782,10.1016/j.molliq.2018.03.025
n-pentyl acetate,308.15,0.860581,10.1016/j.molliq.2018.03.025
mibk,283.15,0.8098,10.1016/j.jct.2006.07.004
mibk,293.15,0.8007,10.1016/j.jct.2006.07.004
mibk,303.15,0.7916,10.1016/j.jct.2006.07.004
mibk,313.15,0.7822,10.1016/j.jct.2006.07.004
mibk,293.15,0.8010,10.1139/v81-488
mibk,298.15,0.7963,10.1139/v81-488
mibk,303.15,0.7920,10.1139/v81-488
mibk,308.15,0.7868,10.1139/v81-488
n-hexanol,293.15,0.8189,10.1021/je501133u
n-hexanol,298.15,0.8153,10.1021/je501133u
n-hexanol,303.15,0.8117,10.1021/je501133u
n-hexanol,308.15,0.8081,10.1021/je501133u
n-hexanol,313.15,0.8045,10.1021/je501133u
n-hexanol,318.15,0.8008,10.1021/je501133u
n-hexanol,323.15,0.7971,10.1021/je501133u
n-hexanol,328.15,0.7934,10.1021/je501133u
n-hexanol,288.15,0.82228,10.1021/je060179e
n-hexanol,293.15,0.81875,10.1021/je060179e
n-hexanol,298.15,0.81523,10.1021/je060179e
n-hexanol,303.15,0.81160,10.1021/je060179e
n-hexanol,308.15,0.80800,10.1021/je060179e
n-hexanol,288.15 ,0.82233,10.1021/je00016a066
n-hexanol,298.15,0.81505,10.1021/je00016a066
n-hexanol,308.15,0.80800,10.1021/je00016a066
isopentanol,298.15,0.805,10.1016/j.jct.2022.106815
isopentanol,303.15,0.801,10.1016/j.jct.2022.106815
isopentanol,308.15,0.797,10.1016/j.jct.2022.106815
isopentanol,313.15,0.793,10.1016/j.jct.2022.106815
isopentanol,293.15,0.8083,10.1021/je050416y
isopentanol,298.15,0.8046,10.1021/je050416y
isopentanol,303.15,0.8008,10.1021/je050416y
isopentanol,308.15,0.7971,10.1021/je050416y
isopentanol,313.15,0.7932,10.1021/je050416y
isopentanol,318.15,0.7895,10.1021/je050416y
isopentanol,323.15,0.7857,10.1021/je050416y
isopentanol,288.15,0.81229,10.1021/je5005752
isopentanol,293.15,0.80858,10.1021/je5005752
isopentanol,298.15,0.80484,10.1021/je5005752
isopentanol,303.15,0.80109,10.1021/je5005752
isopentanol,308.15,0.79731,10.1021/je5005752
isopentanol,313.15,0.79351,10.1021/je5005752
isopentanol,318.15,0.78967,10.1021/je5005752
isopentanol,323.15,0.78579,10.1021/je5005752
Isobutyl acetate,303.15 ,0.8627,10.1007/s10953-011-9652-z
Isobutyl acetate,313.15 ,0.8515,10.1007/s10953-011-9652-z
Isobutyl acetate,298.15,0.86612,10.1016/j.fluid.2005.03.014
Isobutyl acetate,298.15,0.8676,10.1021/acs.jced.2c00404
Isobutyl acetate,303.15,0.8624,10.1021/acs.jced.2c00404
Isobutyl acetate,308.15,0.8560,10.1021/acs.jced.2c00404
Water,273.65,0.99987,"NIST Chemistry WebBook, SRD 69"
Water,273.75,0.99988,"NIST Chemistry WebBook, SRD 69"
Water,273.85,0.99989,"NIST Chemistry WebBook, SRD 69"
Water,273.95,0.99989,"NIST Chemistry WebBook, SRD 69"
Water,274.05,0.9999,"NIST Chemistry WebBook, SRD 69"
Water,274.15,0.9999,"NIST Chemistry WebBook, SRD 69"
Water,274.25,0.99991,"NIST Chemistry WebBook, SRD 69"
Water,274.35,0.99991,"NIST Chemistry WebBook, SRD 69"
Water,274.45,0.99992,"NIST Chemistry WebBook, SRD 69"
Water,274.55,0.99992,"NIST Chemistry WebBook, SRD 69"
Water,274.65,0.99992,"NIST Chemistry WebBook, SRD 69"
Water,274.75,0.99993,"NIST Chemistry WebBook, SRD 69"
Water,274.85,0.99993,"NIST Chemistry WebBook, SRD 69"
Water,274.95,0.99994,"NIST Chemistry WebBook, SRD 69"
Water,275.05,0.99994,"NIST Chemistry WebBook, SRD 69"
Water,275.15,0.99994,"NIST Chemistry WebBook, SRD 69"
Water,275.25,0.99995,"NIST Chemistry WebBook, SRD 69"
Water,275.35,0.99995,"NIST Chemistry WebBook, SRD 69"
Water,275.45,0.99995,"NIST Chemistry WebBook, SRD 69"
Water,275.55,0.99995,"NIST Chemistry WebBook, SRD 69"
Water,275.65,0.99996,"NIST Chemistry WebBook, SRD 69"
Water,275.75,0.99996,"NIST Chemistry WebBook, SRD 69"
Water,275.85,0.99996,"NIST Chemistry WebBook, SRD 69"
Water,275.95,0.99996,"NIST Chemistry WebBook, SRD 69"